2013/12/19 14:35:10 INFO - Thread-2 start (Event Handlers)
2013/12/19 14:35:10 INFO - Thread-3 start (Poll & Kill Commands)
2013/12/19 14:35:10 INFO - port:7766
2013/12/19 14:35:10 INFO - Suite starting at 2013-12-19 14:35:10.192998
2013/12/19 14:35:10 INFO - Log event clock: real time
2013/12/19 14:35:10 INFO - Run mode: live
2013/12/19 14:35:10 INFO - Start point: 2013010100
2013/12/19 14:35:10 INFO - Stop point: 2013011000
2013/12/19 14:35:10 INFO - Thread-4 start (Job Submission)
2013/12/19 14:35:10 INFO - Thread-5 start (Request Handling)
2013/12/19 14:35:10 INFO - Restart /net/home/h01/frsn/cylc-run/cycles/state/state.20131219T143500.700796Z
2013/12/19 14:35:10 INFO - [t1.2013010600] -triggered off ['t1.2013010500']
2013/12/19 14:35:11 INFO - [t1.2013010600] -(current:ready)> t1.2013010600 submitting now
2013/12/19 14:35:12 INFO - [t1.2013010600] -(current:ready)> t1.2013010600 submission succeeded
2013/12/19 14:35:12 INFO - [t1.2013010600] -(current:submitted)> t1.2013010600 submit_method_id=2132
2013/12/19 14:35:12 INFO - [t1.2013010600] -(current:submitted)> t1.2013010600 started at 2013-12-19T14:35:11
2013/12/19 14:35:14 INFO - [t1.2013010600] -(current:running)> t1.2013010600 succeeded at 2013-12-19T14:35:13
2013/12/19 14:35:15 INFO - [t1.2013010700] -triggered off ['t1.2013010600']
2013/12/19 14:35:16 INFO - [t1.2013010700] -(current:ready)> t1.2013010700 submitting now
2013/12/19 14:35:16 INFO - [t1.2013010700] -(current:ready)> t1.2013010700 submission succeeded
2013/12/19 14:35:16 INFO - [t1.2013010700] -(current:submitted)> t1.2013010700 submit_method_id=2268
2013/12/19 14:35:17 INFO - [t1.2013010700] -(current:submitted)> t1.2013010700 started at 2013-12-19T14:35:16
2013/12/19 14:35:18 INFO - [t1.2013010700] -(current:running)> t1.2013010700 succeeded at 2013-12-19T14:35:17
2013/12/19 14:35:19 INFO - [t1.2013010800] -triggered off ['t1.2013010700']
2013/12/19 14:35:20 INFO - [t1.2013010800] -(current:ready)> t1.2013010800 submitting now
2013/12/19 14:35:20 INFO - [t1.2013010800] -(current:ready)> t1.2013010800 submission succeeded
2013/12/19 14:35:20 INFO - [t1.2013010800] -(current:submitted)> t1.2013010800 submit_method_id=2398
2013/12/19 14:35:21 INFO - [t1.2013010800] -(current:submitted)> t1.2013010800 started at 2013-12-19T14:35:20
2013/12/19 14:35:22 INFO - [t1.2013010800] -(current:running)> t1.2013010800 succeeded at 2013-12-19T14:35:21
2013/12/19 14:35:23 INFO - [t1.2013010900] -triggered off ['t1.2013010800']
2013/12/19 14:35:24 INFO - [t1.2013010900] -(current:ready)> t1.2013010900 submitting now
2013/12/19 14:35:25 INFO - [t1.2013010900] -(current:ready)> t1.2013010900 submission succeeded
2013/12/19 14:35:25 INFO - [t1.2013010900] -(current:submitted)> t1.2013010900 submit_method_id=2518
2013/12/19 14:35:25 INFO - [t1.2013010900] -(current:submitted)> t1.2013010900 started at 2013-12-19T14:35:24
2013/12/19 14:35:27 INFO - [t1.2013010900] -(current:running)> t1.2013010900 succeeded at 2013-12-19T14:35:26
2013/12/19 14:35:28 INFO - [t1.2013011000] -triggered off ['t1.2013010900']
2013/12/19 14:35:29 INFO - [t1.2013011000] -(current:ready)> t1.2013011000 submitting now
2013/12/19 14:35:29 INFO - [t1.2013011000] -(current:ready)> t1.2013011000 submission succeeded
2013/12/19 14:35:29 INFO - [t1.2013011000] -(current:submitted)> t1.2013011000 submit_method_id=2647
2013/12/19 14:35:29 INFO - [t1.2013011000] -(current:submitted)> t1.2013011000 started at 2013-12-19T14:35:29
2013/12/19 14:35:31 INFO - [t1.2013011000] -(current:running)> t1.2013011000 succeeded at 2013-12-19T14:35:30
2013/12/19 14:35:31 INFO - Stopping: 
  + all cycling tasks have spawned past the final cycle 2013011000
2013/12/19 14:35:31 INFO - Thread-4 exit (Job Submission)
2013/12/19 14:35:32 INFO - Thread-2 exit (Event Handlers)
2013/12/19 14:35:32 INFO - Thread-3 exit (Poll & Kill Commands)
